<?xml version="1.0" encoding="UTF-8"?>

<!-- generated on 2024-04-26 15:07:41 by Eclipse SUMO GUI Version 1.19.0
<configuration xmlns:xsi="http://www.w3.org/2001/XMLSchema-instance" xsi:noNamespaceSchemaLocation="http://sumo.dlr.de/xsd/sumoConfiguration.xsd">

    <input>
        <net-file value="C:\Users\Beyourter\Documents\GitHub\Early-Detection-System-for-Autonomous-Vehicles\updatedNetwork.net.xml"/>
        <route-files value="C:\Users\Beyourter\Documents\GitHub\Early-Detection-System-for-Autonomous-Vehicles\updatedRoute.rou.xml"/>
    </input>

    <output>
        <fcd-output value="C:\Users\Beyourter\Documents\GitHub\Early-Detection-System-for-Autonomous-Vehicles\fcd.xml"/>
        <tripinfo-output value="C:\Users\Beyourter\Documents\GitHub\Early-Detection-System-for-Autonomous-Vehicles\tripinfo.xml"/>
        <lanechange-output value="C:\Users\Beyourter\Documents\GitHub\Early-Detection-System-for-Autonomous-Vehicles\lanechange.xml"/>
        <statistic-output value="C:\Users\Beyourter\Documents\GitHub\Early-Detection-System-for-Autonomous-Vehicles\statistic.xml"/>
    </output>

    <time>
        <step-length value="0.1"/>
    </time>

    <gui_only>
        <gui-settings-file value="C:\Users\Beyourter\Documents\GitHub\Early-Detection-System-for-Autonomous-Vehicles\file.settings.xml"/>
    </gui_only>

</configuration>
-->

<fcd-export xmlns:xsi="http://www.w3.org/2001/XMLSchema-instance" xsi:noNamespaceSchemaLocation="http://sumo.dlr.de/xsd/fcd_file.xsd">
</fcd-export>
